{
    "ident": "AR",
    "formula": "AR",
    "cas_number": "7440-37-1",
    "name": "ARGON",
    "aliases": [
        "Argon"
    ],
    "mol_weight": 39.948,
    "default_fh_order": 0,
    "references": {
        "polarizability (m3)" : "2018 Table of static dipole polarizabilities of the neutral elements in the periodic table, Schwerdtfeger & Nagle, MOLECULAR PHYSICS (2019), https://doi.org/10.1080/00268976.2018.1535143",
        "ionization_energy (J)" : "https://webbook.nist.gov/cgi/inchi?ID=C7440371&Mask=20"
    },
    "Mie": {
        "default": {
            "sigma": 3.404e-10,
            "eps_div_k": 117.84,
            "lambda_a": 6.0,
            "lambda_r": 12.085,
            "bib_reference": "Developing intermolecular-potential models for use with the SAFT-VR Mie equation of state, Simon Dufal, Thomas Lafitte, Amparo Galindo, George Jackson, Andrew J. Haslam, AlChE Journal, Vol. 61, 9, 2015, doi: https://doi.org/10.1002/aic.14808"
        },
        "unpublished_Jackson": {
            "sigma": 3.41e-10,
            "eps_div_k": 118.7,
            "lambda_a": 6.0,
            "lambda_r": 12.26,
            "bib_reference": "Unpublished (as of 08/2018) parameters from G. Jackon's group"
        }
    },
    "HardSphere": {
        "default": {
            "sigma": 3.41e-10,
            "FH_order": 0,
            "bib_reference": "Unpublished (as of 08/2018) parameters from G. Jackon's group"
        }
    },
    "Mie-FH0": {
        "default": {
            "sigma": 3.41e-10,
            "eps_div_k": 118.7,
            "lambda_a": 6.0,
            "lambda_r": 12.26,
            "FH_order": 0,
            "bib_reference": "Unpublished (as of 08/2018) parameters from G. Jackon's group"
        }
    },
    "ModTangToennis": {
        "default": {
            "A_div_k": 4.61330146e7,
            "a": [-2.98337630e1, -9.71208881, 2.75206827e-2, -1.01489050e-2],
            "b": 4.02517211e1,
            "C": [4.42812017e-1, 3.26707684e-2, 2.45656537e-3,
                  1.88246247e-4, 1.47012192e-5, 1.17006343e-6],
            "A_tilde_div_k": 9.36167467e5,
            "a_tilde": 2.15969557e1,
            "eps_div_k": 143.123,
            "Re": 0.376182,
            "sigma": 3.35741e-10,
            "bib_reference": "Jäger, Hellmann, Bich, Mol. Phys 108 (2010)",
            "DOI": "https://doi.org/10.1080/00268976.2010.507557",
            "Note": "Potential parameters use kelvin for energies, and nm for lengths, with the exception of sigma, which uses meters."
        }
    },
    "AxilrodTellerCorrection": {
        "default" : {
            "nu" : 7.3527e-108
        }
    }
}